HEADER
"PSFversion" "1.00"
"CMD-v" "(FUNCTION or(mappedRoot(\".5@index\") mappedRoot(\".\\\\CMD- \")))v"
"CMD-v" ".\\CMD- v"
"CMD-v" ".\\5 v"
"CMD+v" "(FUNCTION or(mappedRoot(\".4@index\") mappedRoot(\".\\\\CMD+ \")))v"
"CMD+v" ".\\CMD+ v"
"CMD+v" ".\\4 v"
"S1v" "(FUNCTION or(mappedRoot(\".2@index\") mappedRoot(\".S1\")))v"
"S1v" ".S1v"
"S1v" ".\\2 v"
"S2v" "(FUNCTION or(mappedRoot(\".3@index\") mappedRoot(\".S2\")))v"
"S2v" ".S2v"
"S2v" ".\\3 v"
"S-v" "(FUNCTION or(mappedRoot(\".1@index\") mappedRoot(\".\\\\S- \")))v"
"S-v" ".\\S- v"
"S-v" ".\\1 v"
