HEADER
"PSFversion" "1.00"
"Time Stamp" "Feb  5 14:15:25 2026"
TYPE
"variable" STRUCT(
"value" FLOAT DOUBLE
) PROP( "key" "element" )
VALUE
"wp" "variable" ( 36.9e-6 ) PROP( )
"wn" "variable" ( 9e-6 ) PROP( )
"L" "variable" ( 350e-9 ) PROP( )
"temp" "variable" ( 27 ) PROP( )
END
