HEADER
"PSFversion" "1.00"
"CMD+v" "(FUNCTION or(mappedRoot(\".3@index\") mappedRoot(\".\\\\CMD+ \")))v"
"CMD+v" ".\\CMD+ v"
"CMD+v" ".\\3 v"
"CMD-v" "(FUNCTION or(mappedRoot(\".4@index\") mappedRoot(\".\\\\CMD- \")))v"
"CMD-v" ".\\CMD- v"
"CMD-v" ".\\4 v"
"S+v" "(FUNCTION or(mappedRoot(\".1@index\") mappedRoot(\".\\\\S+ \")))v"
"S+v" ".\\S+ v"
"S+v" ".\\1 v"
"S-v" "(FUNCTION or(mappedRoot(\".2@index\") mappedRoot(\".\\\\S- \")))v"
"S-v" ".\\S- v"
"S-v" ".\\2 v"
