HEADER
"PSFversion" "1.00"
"Analog_inv" "(FUNCTION or(mappedRoot(\".Analog_in\") mappedRoot(\".2@index\")))v"
"Analog_inv" ".Analog_inv"
"Analog_inv" ".\\2 v"
"result<7>v" "(FUNCTION or(mappedRoot(\".result[7]\") mappedRoot(\".1[7]@index\")))v"
"result<7>v" ".result[7]v"
"result<7>v" "\\1 [7]v"
"result<6>v" "(FUNCTION or(mappedRoot(\".result[6]\") mappedRoot(\".1[6]@index\")))v"
"result<6>v" ".result[6]v"
"result<6>v" "\\1 [6]v"
"result<5>v" "(FUNCTION or(mappedRoot(\".result[5]\") mappedRoot(\".1[5]@index\")))v"
"result<5>v" ".result[5]v"
"result<5>v" "\\1 [5]v"
"result<4>v" "(FUNCTION or(mappedRoot(\".result[4]\") mappedRoot(\".1[4]@index\")))v"
"result<4>v" ".result[4]v"
"result<4>v" "\\1 [4]v"
"result<3>v" "(FUNCTION or(mappedRoot(\".result[3]\") mappedRoot(\".1[3]@index\")))v"
"result<3>v" ".result[3]v"
"result<3>v" "\\1 [3]v"
"result<2>v" "(FUNCTION or(mappedRoot(\".result[2]\") mappedRoot(\".1[2]@index\")))v"
"result<2>v" ".result[2]v"
"result<2>v" "\\1 [2]v"
"result<1>v" "(FUNCTION or(mappedRoot(\".result[1]\") mappedRoot(\".1[1]@index\")))v"
"result<1>v" ".result[1]v"
"result<1>v" "\\1 [1]v"
"result<0>v" "(FUNCTION or(mappedRoot(\".result[0]\") mappedRoot(\".1[0]@index\")))v"
"result<0>v" ".result[0]v"
"result<0>v" "\\1 [0]v"
"clockv" "(FUNCTION or(mappedRoot(\".clock\") mappedRoot(\".3@index\")))v"
"clockv" ".clockv"
"clockv" ".\\3 v"
"resetv" "(FUNCTION or(mappedRoot(\".reset\") mappedRoot(\".4@index\")))v"
"resetv" ".resetv"
"resetv" ".\\4 v"
"startv" "(FUNCTION or(mappedRoot(\".start\") mappedRoot(\".5@index\")))v"
"startv" ".startv"
"startv" ".\\5 v"
