HEADER
"PSFversion" "1.00"
"simulator" "spectre"
"version" "23.1.0.802.isr17"
"date" "11:18:22 AM, Wed Jan 28, 2026"
"design" "//"
"analysis type" "info.primitives"
"analysis name" "primitives"
"analysis description" "Circuit Information"
"xVecSorted" "unknown"
"tolerance.relative" 1.000000000000000e-03
TYPE
"primitive" STRUCT(
"model" STRING *
"oppoint" STRING *
"output" STRING *
"inst" STRING *
"region" STRING *
"terminals" STRING *
) PROP(
"key" "prim"
)
VALUE
"isource" "primitive" (
""
"i v pwr "
"tempeff "
"dc type fundname delay edgetype val0 val1 period rise fall width file offset scale stretch rms pwlfilter rolloff pwlbandwidth allbrkpts pwlperiod pwlperiodstart pwlperiodstop pwlperiodstopvalue pwlperiodstopslope twidth tdvalue vcsvsignalname sinedc ampl freq sinephase ampl2 freq2 sinephase2 fundname2 iqmodfiles fmmodindex fmmodfreq fmmodfiles ammodindex ammodoffset ammodfreq ammodphase damp freqvec amplvec phasevec maxharms td1 tau1 td2 tau2 expperiod data rptstart rpttimes td01 td10 ref jitter rjseed rjrms pjamp pjfreq pjtype seed taps lfsrtaps lfsrseed registerlength triggerthreshold triggerdelthresh triggerdirection transitionreference modulation pam4_mapping oscmacrofile freqscale amplscale noisefile noisetype noiseinterp isnoisy mag phase xfmag pacmag pacphase m tc1 tc2 tnom trise "
""
"sink src ctlp ctln "
)
"vcvs" "primitive" (
""
"i v pwr lx0 lx1 lx2 "
"islinear "
"m type delta gain td min max abs file scale stretch tc1 tc2 trise "
""
"p n ps ns "
)
"vsource" "primitive" (
""
"v i pwr "
"tempeff "
"dc type fundname delay edgetype val0 val1 period rise fall width file offset scale stretch rms pwlfilter rolloff pwlbandwidth allbrkpts pwlperiod pwlperiodstart pwlperiodstop pwlperiodstopvalue pwlperiodstopslope twidth tdvalue vcsvsignalname sinedc ampl freq sinephase ampl2 freq2 sinephase2 fundname2 iqmodfiles fmmodindex fmmodfreq fmmodfiles ammodindex ammodoffset ammodfreq ammodphase damp freqvec amplvec phasevec maxharms td1 tau1 td2 tau2 expperiod data rptstart rpttimes td01 td10 ref jitter rjseed rjrms pjamp pjfreq pjtype seed taps lfsrtaps lfsrseed registerlength triggerthreshold triggerdelthresh triggerdirection transitionreference modulation pam4_mapping oscmacrofile freqscale amplscale noisefile noisetype noiseinterp isnoisy mag phase xfmag pacmag pacphase m tc1 tc2 tnom trise "
""
"p n ctlp ctln "
)
END
