HEADER
"PSFversion" "1.00"
"design" "(\"SAR\" \"test_switch\" \"config\" \"\")"
"simulator" "ams"
"temperature" "27"
"host" ""
"date" "Jan 28 11:18:07 2026"
"title" ""
"analysisList" "()"
END
