HEADER
"PSFversion" "1.00"
"Log Generator" "drlLog rev. 1.0"
"Log Time Stamp" "Thu Feb  5 19:04:56 2026"
"psfversion" "1.4.0"
"simulator" "spectre"
"version" "23.1.0.802.isr17"
"date" "7:04:56 PM, Thur Feb 5, 2026"
"design" "//"
"signalNameType" "spectre"
"simMode" "APS"
"measdgt" 0
"ingold" 2
"sst2usecolon" 0
TYPE
"analysisInst" STRUCT(
"analysisType" STRING *
"dataFile" STRING *
"format" STRING *
"parent" STRING *
"sweepVariable" ARRAY ( * ) STRING *
"description" STRING *
)
VALUE
"tran-tran" "analysisInst" (
"tran"
"psf.trn"
"SST2"
""
("time")
"Transient Analysis `tran': time = (0 s -> 900 us)"
) PROP(
"data_type" "swept_scalar"
"UUID" "pantin|x86_64|1083547|1770314693|0"
"dataset_logical_name" "tran-tran"
"dataset_partition_priority" 1
"dataset_partition_type" "digital"
)

"tran-tran" "analysisInst" (
"tran"
"tran.tran.tran"
"PSF"
""
("time")
"Transient Analysis `tran': time = (0 s -> 900 us)"
) PROP(
"data_type" "swept_scalar"
"UUID" "pantin|x86_64|1083547|1770314693|0"
"dataset_logical_name" "tran-tran"
"dataset_partition_priority" 0
"dataset_partition_type" "analog"
)

"finalTimeOP-info" "analysisInst" (
"info"
"finalTimeOP.info"
"PSF"
""
()
"Circuit Information"
) PROP(
"data_type" "struct"
)

"modelParameter-info" "analysisInst" (
"info"
"modelParameter.info"
"PSF"
""
()
"Circuit Information"
) PROP(
"data_type" "struct"
)

"element-info" "analysisInst" (
"info"
"element.info"
"PSF"
""
()
"Circuit Information"
) PROP(
"data_type" "struct"
)

"outputParameter-info" "analysisInst" (
"info"
"outputParameter.info"
"PSF"
""
()
"Circuit Information"
) PROP(
"data_type" "struct"
)

"designParamVals-info" "analysisInst" (
"info"
"designParamVals.info"
"PSF"
""
()
"Circuit Information"
) PROP(
"data_type" "struct"
)

"primitives-info.primitives" "analysisInst" (
"info.primitives"
"primitives.info.primitives"
"PSF"
""
()
"Circuit Information"
)
"subckts-info.subckts" "analysisInst" (
"info.subckts"
"subckts.info.subckts"
"PSF"
""
()
"Circuit Information"
)
END
