HEADER
"PSFversion" "1.00"
"V3n" "analogLib_idc_spectre"
"V0n V4n V5n" "analogLib_vdc_spectre"
"E0n" "analogLib_vcvs_spectre"
