HEADER
"PSFversion" "1.00"
"design" "(\"SAR\" \"test_sar8\" \"schematic\" \"\")"
"simulator" "spectre"
"temperature" "27"
"host" ""
"date" "Feb  5 15:41:46 2026"
"title" ""
"analysisList" "()"
END
