HEADER
"PSFversion" "1.00"
"__artInstanceTerminalDelimiter__" "."
"__artHierarchyDelimiter__" "."
"__netlister__" "AMS-UNL"
"__lib__" "SAR"
"__cell__" "test_sar8"
"__view__" "config"
"__topcell__" "test_sar8"
"__outputformat__" "psfxl_new"
