HEADER
"PSFversion" "1.00"
"vout_pv" ".vout_pv"
"vout_nv" ".vout_nv"
"clockv" ".clockv"
