HEADER
"PSFversion" "1.00"
"gnd!v" "cds_globals.\\gnd! v"
"result<0>v" "result[0]v"
"result<1>v" "result[1]v"
"result<2>v" "result[2]v"
"result<3>v" "result[3]v"
"result<4>v" "result[4]v"
"result<5>v" "result[5]v"
"result<6>v" "result[6]v"
"result<7>v" "result[7]v"
"vdd!v" "cds_globals.\\vdd! v"
"vdd3!v" "cds_globals.\\vdd3! v"
