HEADER
"PSFversion" "1.00"
"gndav" ".gndav"
"vddav" ".vddav"
"vinpv" ".vinpv"
"vinmv" ".vinmv"
"clockv" ".clockv"
"Outpv" ".Outpv"
"Outnv" ".Outnv"
