HEADER
"PSFversion" "1.00"
"I19n" "SAR_sar8_schematic"
"I18n" "SAR_save_es_verilogams"
"I17n" "SAR_voltage_gene_verilogams"
"I16n" "SAR_digital_gene_a1"
"V0n" "analogLib_vdc_spectre"
