HEADER
"PSFversion" "1.00"
"__NEXT_FILE__" "SAR_test_sar8_schematic"
