HEADER
"PSFversion" "1.00"
"Sm<0>v" "Sm[0]v"
"Sm<1>v" "Sm[1]v"
"Sm<2>v" "Sm[2]v"
"Sm<3>v" "Sm[3]v"
"Sm<4>v" "Sm[4]v"
"Sm<5>v" "Sm[5]v"
"Sm<6>v" "Sm[6]v"
"Sm<7>v" "Sm[7]v"
"Sm<8>v" "Sm[8]v"
"Sp<0>v" "Sp[0]v"
"Sp<1>v" "Sp[1]v"
"Sp<2>v" "Sp[2]v"
"Sp<3>v" "Sp[3]v"
"Sp<4>v" "Sp[4]v"
"Sp<5>v" "Sp[5]v"
"Sp<6>v" "Sp[6]v"
"Sp<7>v" "Sp[7]v"
"Sp<8>v" "Sp[8]v"
"gnd!v" "cds_globals.\\gnd! v"
"net3<0>v" "net3[0]v"
"net3<1>v" "net3[1]v"
"net3<2>v" "net3[2]v"
"net3<3>v" "net3[3]v"
"partialResultFlag<0>v" "partialResultFlag[0]v"
"partialResultFlag<1>v" "partialResultFlag[1]v"
"partialResultFlag<2>v" "partialResultFlag[2]v"
"partialResultFlag<3>v" "partialResultFlag[3]v"
"partialResultFlag<4>v" "partialResultFlag[4]v"
"partialResultFlag<5>v" "partialResultFlag[5]v"
"partialResultFlag<6>v" "partialResultFlag[6]v"
"partialResultFlag<7>v" "partialResultFlag[7]v"
"result<0>v" "result[0]v"
"result<1>v" "result[1]v"
"result<2>v" "result[2]v"
"result<3>v" "result[3]v"
"result<4>v" "result[4]v"
"result<5>v" "result[5]v"
"result<6>v" "result[6]v"
"result<7>v" "result[7]v"
"vdd!v" "cds_globals.\\vdd! v"
"vdd3!v" "cds_globals.\\vdd3! v"
