HEADER
"PSFversion" "1.00"
"s<0>v" "s[0]v"
"s<1>v" "s[1]v"
"s<2>v" "s[2]v"
"s<3>v" "s[3]v"
"s<4>v" "s[4]v"
"s<5>v" "s[5]v"
"s<6>v" "s[6]v"
"s<7>v" "s[7]v"
