HEADER
"PSFversion" "1.00"
"resetv" ".resetv"
"clockv" ".clockv"
"startv" ".startv"
