HEADER
"PSFversion" "1.00"
"resetv" ".resetv"
"clockv" ".clockv"
"startv" ".startv"
"compv" ".compv"
"clkcompv" ".clkcompv"
"statesamplev" ".statesamplev"
"stateholdv" ".stateholdv"
"statecomparev" ".statecomparev"
"partialresultflag<0>v" ".partialresultflag[0]v"
"partialresultflag<1>v" ".partialresultflag[1]v"
"partialresultflag<2>v" ".partialresultflag[2]v"
"partialresultflag<3>v" ".partialresultflag[3]v"
"partialresultflag<4>v" ".partialresultflag[4]v"
"partialresultflag<5>v" ".partialresultflag[5]v"
"partialresultflag<6>v" ".partialresultflag[6]v"
"partialresultflag<7>v" ".partialresultflag[7]v"
"debugflagv" ".debugflagv"
"contflag<0>v" ".contflag[0]v"
"contflag<1>v" ".contflag[1]v"
"contflag<2>v" ".contflag[2]v"
"contflag<3>v" ".contflag[3]v"
"sapv" ".sapv"
"samv" ".samv"
"sbpv" ".sbpv"
"sbmv" ".sbmv"
"sp<0>v" ".sp[0]v"
"sp<1>v" ".sp[1]v"
"sp<2>v" ".sp[2]v"
"sp<3>v" ".sp[3]v"
"sp<4>v" ".sp[4]v"
"sp<5>v" ".sp[5]v"
"sp<6>v" ".sp[6]v"
"sp<7>v" ".sp[7]v"
"sp<8>v" ".sp[8]v"
"sm<0>v" ".sm[0]v"
"sm<1>v" ".sm[1]v"
"sm<2>v" ".sm[2]v"
"sm<3>v" ".sm[3]v"
"sm<4>v" ".sm[4]v"
"sm<5>v" ".sm[5]v"
"sm<6>v" ".sm[6]v"
"sm<7>v" ".sm[7]v"
"sm<8>v" ".sm[8]v"
"result<0>v" ".result[0]v"
"result<1>v" ".result[1]v"
"result<2>v" ".result[2]v"
"result<3>v" ".result[3]v"
"result<4>v" ".result[4]v"
"result<5>v" ".result[5]v"
"result<6>v" ".result[6]v"
"result<7>v" ".result[7]v"
