HEADER
"PSFversion" "1.00"
"vdd3!v" "vdd3!v"
"gnd!v" "0v"
"vdd!v" "vdd!v"
