HEADER
"PSFversion" "1.00"
"V3n" "analogLib_idc_spectre"
"V5n V4n V0n" "analogLib_vdc_spectre"
"E0n" "analogLib_vcvs_spectre"
"I2n" "switch"
